 Gaussian 09, Revision A.02,
 Gaussian 09:  EM64L-G09RevA.02 11-Jun-2009

 --------------------------------------------------------
 #B3LYP/6-31++G(d,p) opt freq=Anharmonic SCF=Tight NoSymm
 --------------------------------------------------------

 ---
 H2O
 ---
 Symbolic Z-matrix:
 Charge =  0 Multiplicity = 1

 SCF Done:  E(RB3LYP) =  -76.3085787306     A.U. after   10 cycles
 SCF Done:  E(RB3LYP) =  -76.3412939519     A.U. after    9 cycles
 SCF Done:  E(RB3LYP) =  -76.4005411762     A.U. after    9 cycles
 SCF Done:  E(RB3LYP) =  -76.3652091857     A.U. after    9 cycles
 SCF Done:  E(RB3LYP) =  -76.4338465221     A.U. after    9 cycles
 SCF Done:  E(RB3LYP) =  -76.4340845944     A.U. after    7 cycles
 SCF Done:  E(RB3LYP) =  -76.4341233919     A.U. after    7 cycles
 SCF Done:  E(RB3LYP) =  -76.4341232213     A.U. after    7 cycles
 SCF Done:  E(RB3LYP) =  -76.4341240653     A.U. after    6 cycles
 Optimization completed.
    -- Stationary point found.
 Normal termination of Gaussian 09 at Tue Jul  1 19:32:15 2014.

 ----------------------------------------------------------------------
 #N Geom=AllCheck Guess=TCheck SCRF=Check GenChk RB3LYP/6-31++G(d,p) Fr
 eq
 ----------------------------------------------------------------------

 H2O
 ---
 Redundant internal coordinates taken from checkpoint file:
 /scratch/Gau-27453.chk
 Charge =  0 Multiplicity = 1

                          Input orientation:
 ---------------------------------------------------------------------
 Center     Atomic      Atomic             Coordinates (Angstroms)
 Number     Number       Type             X           Y           Z
 ---------------------------------------------------------------------
      1          8           0        0.184416    0.002595    0.000000
      2          1           0        0.890883   -0.655171    0.000000
      3          1           0       -0.640106   -0.499342    0.000000
 ---------------------------------------------------------------------

 SCF Done:  E(RB3LYP) =  -76.4341240653     A.U. after    1 cycles
 SCF Done:  E(RB3LYP) =  -76.4340197629     A.U. after    7 cycles
 SCF Done:  E(RB3LYP) =  -76.4340197135     A.U. after    7 cycles
 SCF Done:  E(RB3LYP) =  -76.4340245292     A.U. after    7 cycles
 SCF Done:  E(RB3LYP) =  -76.4340277481     A.U. after    7 cycles
 SCF Done:  E(RB3LYP) =  -76.4341068329     A.U. after    7 cycles
 SCF Done:  E(RB3LYP) =  -76.4341066677     A.U. after    7 cycles

 Alpha  occ. eigenvalues --  -19.17018  -1.02276  -0.54052  -0.39595  -0.32124
 Alpha virt. eigenvalues --   -0.02457   0.02784   0.14497   0.15499   0.16815
 Alpha virt. eigenvalues --    0.19822   0.22399   0.27364   0.90563   0.99159
 Alpha virt. eigenvalues --    1.11244   1.13148   1.16606   1.36666   1.50475

 Mulliken atomic charges:
              1
     1  O   -0.685875
     2  H    0.342937
     3  H    0.342939
 Sum of Mulliken atomic charges =   0.00000

 Dipole moment (field-independent basis, Debye):
    X=             -0.2229    Y=             -2.1896    Z=              0.0000  Tot=              2.2009
 Quadrupole moment (field-independent basis, Debye-Ang):
   XX=             -4.5271   YY=             -5.9944   ZZ=             -7.8837
   XY=             -0.5626   XZ=              0.0000   YZ=              0.0000

  Exact polarizability:   8.130  -0.134   6.827   0.000   0.000   6.687
 Approx polarizability:   9.951  -0.206   7.947   0.000   0.000   6.835

                     1                      2                      3
                     A                      A                      A
 Frequencies --  1600.7808              3806.5315              3928.9605
 Red. masses --     1.0838                 1.0441                 1.0831
 Frc consts  --     1.6363                 8.9139                 9.8505
 IR Inten    --    87.1321                 5.0653                53.6136

 - Thermochemistry -
 -------------------
 Temperature   298.150 Kelvin.  Pressure   1.00000 Atm.
 Atom     1 has atomic number  8 and mass  15.99491

 Molecular mass:    18.01056 amu.
 Principal axes and moments of inertia in atomic units:
                           1         2         3
     Eigenvalues --     2.17159   4.26161   6.43320
           X            0.99486   0.10125   0.00000
           Y           -0.10125   0.99486   0.00000
           Z            0.00000   0.00000   1.00000
 This molecule is an asymmetric top.
 Rotational symmetry number  1.
 Rotational temperatures (Kelvin)     39.88489    20.32422    13.46356
 Rotational constants (GHZ):         831.06726   423.48848   280.53549
 Zero-point vibrational energy      55843.3 (Joules/Mol)
                                   13.34687 (Kcal/Mol)
 Vibrational temperatures:   2303.16  5476.74  5652.89
          (Kelvin)

 Zero-point correction=                           0.021270 (Hartree/Particle)
 Thermal correction to Energy=                    0.024105
 Thermal correction to Enthalpy=                  0.025050
 Thermal correction to Gibbs Free Energy=         0.002966
 Sum of electronic and zero-point Energies=            -76.412854
 Sum of electronic and thermal Energies=               -76.410019
 Sum of electronic and thermal Enthalpies=             -76.409075
 Sum of electronic and thermal Free Energies=          -76.431158

                     E (Thermal)             CV                S
                      KCal/Mol        Cal/Mol-Kelvin    Cal/Mol-Kelvin
 Total                   15.126              6.014             46.479
 Electronic               0.000              0.000              0.000
 Translational            0.889              2.981             34.608
 Rotational               0.889              2.981             11.863
 Vibrational             13.349              0.052              0.008

 Optimization completed.
    -- Stationary point found.
 Normal termination of Gaussian 09 at Tue Jul  1 19:32:37 2014.
